FoamFile
{
    version     2.0;
    format      ascii;
    class       polyBoundaryMesh;
    location    "constant/polyMesh";
    object      boundary;
}

3         
(
    fixedWalls
    {
        type wall;
        nFaces 297;
        startFace 19404;
    }
    movingWall
    {
        type wall;
        nFaces 99;
        startFace 19701;
    }
    BaseAndTop
    {
        type empty;
        nFaces 19602;
        startFace 19800;
    }
)
