FoamFile
{
    version     2.0;
    format      ascii;
    class       polyBoundaryMesh;
    location    "constant/polyMesh";
    object      boundary;
}

5         
(
    inlet
    {
        type wall;
        nFaces 90;
        startFace 42288;
    }
    object
    {
        type wall;
        nFaces 99;
        startFace 42378;
    }
    outlet
    {
        type Unspecified;
        nFaces 90;
        startFace 42477;
    }
    wall
    {
        type Unspecified;
        nFaces 240;
        startFace 42567;
    }
    BaseAndTop
    {
        type empty;
        nFaces 55600;
        startFace 42807;
    }
)
