FoamFile
{
    version     2.0;
    format      ascii;
    class       polyBoundaryMesh;
    location    "constant/polyMesh";
    object      boundary;
}

2         
(
    movingWall
    {
        type wall;
        nFaces 1996;
        startFace 497004;
    }
    BaseAndTop
    {
        type empty;
        nFaces 498002;
        startFace 499000;
    }
)
